V -t * -v 1.0a5 -a 0
A -t * -n 1 -p 0 -o 0x7fffffff -c 30 -a 1
A -t * -h 1 -m 1073741823 -s 0
c -t * -i 1 -n Blue
c -t * -i 2 -n Red
n -t * -a 0 -s 0 -S UP -v circle -c black -i black
n -t * -a 1 -s 1 -S UP -v circle -c black -i black
n -t * -a 2 -s 2 -S UP -v circle -c black -i black
n -t * -a 3 -s 3 -S UP -v circle -c black -i black
n -t * -a 4 -s 4 -S UP -v circle -c black -i black
n -t * -a 5 -s 5 -S UP -v circle -c black -i black
n -t * -a 6 -s 6 -S UP -v circle -c black -i black
n -t * -a 7 -s 7 -S UP -v circle -c black -i black
n -t * -a 8 -s 8 -S UP -v circle -c black -i black
n -t * -a 9 -s 9 -S UP -v circle -c black -i black
n -t * -a 10 -s 10 -S UP -v circle -c black -i black
n -t * -a 11 -s 11 -S UP -v circle -c black -i black
n -t * -a 12 -s 12 -S UP -v circle -c black -i black
n -t * -a 13 -s 13 -S UP -v circle -c black -i black
n -t * -a 14 -s 14 -S UP -v circle -c black -i black
l -t * -s 0 -d 1 -S UP -r 1500000 -D 0.050000000000000003 -c black -o up
l -t * -s 0 -d 2 -S UP -r 1500000 -D 0.050000000000000003 -c black -o right-up
l -t * -s 0 -d 3 -S UP -r 1500000 -D 0.050000000000000003 -c black -o right
l -t * -s 0 -d 9 -S UP -r 1500000 -D 0.050000000000000003 -c black -o down
l -t * -s 1 -d 2 -S UP -r 1500000 -D 0.050000000000000003 -c black -o right
l -t * -s 1 -d 7 -S UP -r 1500000 -D 0.050000000000000003 -c black -o left-down
l -t * -s 2 -d 6 -S UP -r 1500000 -D 0.050000000000000003 -c black -o right
l -t * -s 3 -d 4 -S UP -r 1500000 -D 0.050000000000000003 -c black -o right
l -t * -s 3 -d 5 -S UP -r 1500000 -D 0.050000000000000003 -c black -o down
l -t * -s 3 -d 6 -S UP -r 1500000 -D 0.050000000000000003 -c black -o right-up
l -t * -s 4 -d 13 -S UP -r 1500000 -D 0.050000000000000003 -c black -o down
l -t * -s 5 -d 13 -S UP -r 1500000 -D 0.050000000000000003 -c black -o right
l -t * -s 5 -d 11 -S UP -r 1500000 -D 0.050000000000000003 -c black -o right-down
l -t * -s 7 -d 8 -S UP -r 1500000 -D 0.050000000000000003 -c black -o down
l -t * -s 7 -d 12 -S UP -r 1500000 -D 0.050000000000000003 -c black -o right
l -t * -s 8 -d 9 -S UP -r 1500000 -D 0.050000000000000003 -c black -o left
l -t * -s 9 -d 11 -S UP -r 1500000 -D 0.050000000000000003 -c black -o left-down
l -t * -s 8 -d 10 -S UP -r 1500000 -D 0.050000000000000003 -c black -o right
q -t * -s 6 -d 2 -a 5
q -t * -s 2 -d 6 -a 5
q -t * -s 5 -d 13 -a 5
q -t * -s 7 -d 12 -a 5
q -t * -s 9 -d 8 -a 3
q -t * -s 8 -d 9 -a 3
q -t * -s 13 -d 5 -a 5
q -t * -s 12 -d 7 -a 5
q -t * -s 0 -d 3 -a 10
q -t * -s 3 -d 0 -a 10
+ -t 0.1 -s 4 -d 3 -p cbr -e 512 -c 2 -i 0 -a 2 -x {4.0 12.0 0 ------- null}
- -t 0.1 -s 4 -d 3 -p cbr -e 512 -c 2 -i 0 -a 2 -x {4.0 12.0 0 ------- null}
h -t 0.1 -s 4 -d 3 -p cbr -e 512 -c 2 -i 0 -a 2 -x {4.0 12.0 -1 ------- null}
r -t 0.152730666666667 -s 4 -d 3 -p cbr -e 512 -c 2 -i 0 -a 2 -x {4.0 12.0 0 ------- null}
+ -t 0.152730666666667 -s 3 -d 0 -p cbr -e 512 -c 2 -i 0 -a 2 -x {4.0 12.0 0 ------- null}
- -t 0.152730666666667 -s 3 -d 0 -p cbr -e 512 -c 2 -i 0 -a 2 -x {4.0 12.0 0 ------- null}
h -t 0.152730666666667 -s 3 -d 0 -p cbr -e 512 -c 2 -i 0 -a 2 -x {4.0 12.0 -1 ------- null}
r -t 0.205461333333333 -s 3 -d 0 -p cbr -e 512 -c 2 -i 0 -a 2 -x {4.0 12.0 0 ------- null}
+ -t 0.205461333333333 -s 0 -d 1 -p cbr -e 512 -c 2 -i 0 -a 2 -x {4.0 12.0 0 ------- null}
- -t 0.205461333333333 -s 0 -d 1 -p cbr -e 512 -c 2 -i 0 -a 2 -x {4.0 12.0 0 ------- null}
h -t 0.205461333333333 -s 0 -d 1 -p cbr -e 512 -c 2 -i 0 -a 2 -x {4.0 12.0 -1 ------- null}
r -t 0.258192 -s 0 -d 1 -p cbr -e 512 -c 2 -i 0 -a 2 -x {4.0 12.0 0 ------- null}
+ -t 0.258192 -s 1 -d 7 -p cbr -e 512 -c 2 -i 0 -a 2 -x {4.0 12.0 0 ------- null}
- -t 0.258192 -s 1 -d 7 -p cbr -e 512 -c 2 -i 0 -a 2 -x {4.0 12.0 0 ------- null}
h -t 0.258192 -s 1 -d 7 -p cbr -e 512 -c 2 -i 0 -a 2 -x {4.0 12.0 -1 ------- null}
r -t 0.310922666666667 -s 1 -d 7 -p cbr -e 512 -c 2 -i 0 -a 2 -x {4.0 12.0 0 ------- null}
+ -t 0.310922666666667 -s 7 -d 12 -p cbr -e 512 -c 2 -i 0 -a 2 -x {4.0 12.0 0 ------- null}
- -t 0.310922666666667 -s 7 -d 12 -p cbr -e 512 -c 2 -i 0 -a 2 -x {4.0 12.0 0 ------- null}
h -t 0.310922666666667 -s 7 -d 12 -p cbr -e 512 -c 2 -i 0 -a 2 -x {4.0 12.0 -1 ------- null}
r -t 0.363653333333333 -s 7 -d 12 -p cbr -e 512 -c 2 -i 0 -a 2 -x {4.0 12.0 0 ------- null}
+ -t 0.5 -s 1 -d 0 -p tcp -e 40 -c 1 -i 1 -a 1 -x {1.0 11.0 0 ------- null}
- -t 0.5 -s 1 -d 0 -p tcp -e 40 -c 1 -i 1 -a 1 -x {1.0 11.0 0 ------- null}
h -t 0.5 -s 1 -d 0 -p tcp -e 40 -c 1 -i 1 -a 1 -x {1.0 11.0 -1 ------- null}
+ -t 0.5096 -s 4 -d 3 -p cbr -e 512 -c 2 -i 2 -a 2 -x {4.0 12.0 1 ------- null}
- -t 0.5096 -s 4 -d 3 -p cbr -e 512 -c 2 -i 2 -a 2 -x {4.0 12.0 1 ------- null}
h -t 0.5096 -s 4 -d 3 -p cbr -e 512 -c 2 -i 2 -a 2 -x {4.0 12.0 -1 ------- null}
r -t 0.550213333333333 -s 1 -d 0 -p tcp -e 40 -c 1 -i 1 -a 1 -x {1.0 11.0 0 ------- null}
+ -t 0.550213333333333 -s 0 -d 9 -p tcp -e 40 -c 1 -i 1 -a 1 -x {1.0 11.0 0 ------- null}
- -t 0.550213333333333 -s 0 -d 9 -p tcp -e 40 -c 1 -i 1 -a 1 -x {1.0 11.0 0 ------- null}
h -t 0.550213333333333 -s 0 -d 9 -p tcp -e 40 -c 1 -i 1 -a 1 -x {1.0 11.0 -1 ------- null}
r -t 0.562330666666667 -s 4 -d 3 -p cbr -e 512 -c 2 -i 2 -a 2 -x {4.0 12.0 1 ------- null}
+ -t 0.562330666666667 -s 3 -d 0 -p cbr -e 512 -c 2 -i 2 -a 2 -x {4.0 12.0 1 ------- null}
- -t 0.562330666666667 -s 3 -d 0 -p cbr -e 512 -c 2 -i 2 -a 2 -x {4.0 12.0 1 ------- null}
h -t 0.562330666666667 -s 3 -d 0 -p cbr -e 512 -c 2 -i 2 -a 2 -x {4.0 12.0 -1 ------- null}
r -t 0.600426666666667 -s 0 -d 9 -p tcp -e 40 -c 1 -i 1 -a 1 -x {1.0 11.0 0 ------- null}
+ -t 0.600426666666667 -s 9 -d 11 -p tcp -e 40 -c 1 -i 1 -a 1 -x {1.0 11.0 0 ------- null}
- -t 0.600426666666667 -s 9 -d 11 -p tcp -e 40 -c 1 -i 1 -a 1 -x {1.0 11.0 0 ------- null}
h -t 0.600426666666667 -s 9 -d 11 -p tcp -e 40 -c 1 -i 1 -a 1 -x {1.0 11.0 -1 ------- null}
r -t 0.615061333333333 -s 3 -d 0 -p cbr -e 512 -c 2 -i 2 -a 2 -x {4.0 12.0 1 ------- null}
+ -t 0.615061333333333 -s 0 -d 1 -p cbr -e 512 -c 2 -i 2 -a 2 -x {4.0 12.0 1 ------- null}
- -t 0.615061333333333 -s 0 -d 1 -p cbr -e 512 -c 2 -i 2 -a 2 -x {4.0 12.0 1 ------- null}
h -t 0.615061333333333 -s 0 -d 1 -p cbr -e 512 -c 2 -i 2 -a 2 -x {4.0 12.0 -1 ------- null}
r -t 0.65064 -s 9 -d 11 -p tcp -e 40 -c 1 -i 1 -a 1 -x {1.0 11.0 0 ------- null}
+ -t 0.65064 -s 11 -d 9 -p ack -e 40 -c 1 -i 3 -a 1 -x {11.0 1.0 0 ------- null}
- -t 0.65064 -s 11 -d 9 -p ack -e 40 -c 1 -i 3 -a 1 -x {11.0 1.0 0 ------- null}
h -t 0.65064 -s 11 -d 9 -p ack -e 40 -c 1 -i 3 -a 1 -x {11.0 1.0 -1 ------- null}
r -t 0.667792 -s 0 -d 1 -p cbr -e 512 -c 2 -i 2 -a 2 -x {4.0 12.0 1 ------- null}
+ -t 0.667792 -s 1 -d 7 -p cbr -e 512 -c 2 -i 2 -a 2 -x {4.0 12.0 1 ------- null}
- -t 0.667792 -s 1 -d 7 -p cbr -e 512 -c 2 -i 2 -a 2 -x {4.0 12.0 1 ------- null}
h -t 0.667792 -s 1 -d 7 -p cbr -e 512 -c 2 -i 2 -a 2 -x {4.0 12.0 -1 ------- null}
r -t 0.700853333333333 -s 11 -d 9 -p ack -e 40 -c 1 -i 3 -a 1 -x {11.0 1.0 0 ------- null}
+ -t 0.700853333333333 -s 9 -d 0 -p ack -e 40 -c 1 -i 3 -a 1 -x {11.0 1.0 0 ------- null}
- -t 0.700853333333333 -s 9 -d 0 -p ack -e 40 -c 1 -i 3 -a 1 -x {11.0 1.0 0 ------- null}
h -t 0.700853333333333 -s 9 -d 0 -p ack -e 40 -c 1 -i 3 -a 1 -x {11.0 1.0 -1 ------- null}
r -t 0.720522666666667 -s 1 -d 7 -p cbr -e 512 -c 2 -i 2 -a 2 -x {4.0 12.0 1 ------- null}
+ -t 0.720522666666667 -s 7 -d 12 -p cbr -e 512 -c 2 -i 2 -a 2 -x {4.0 12.0 1 ------- null}
- -t 0.720522666666667 -s 7 -d 12 -p cbr -e 512 -c 2 -i 2 -a 2 -x {4.0 12.0 1 ------- null}
h -t 0.720522666666667 -s 7 -d 12 -p cbr -e 512 -c 2 -i 2 -a 2 -x {4.0 12.0 -1 ------- null}
r -t 0.751066666666667 -s 9 -d 0 -p ack -e 40 -c 1 -i 3 -a 1 -x {11.0 1.0 0 ------- null}
+ -t 0.751066666666667 -s 0 -d 1 -p ack -e 40 -c 1 -i 3 -a 1 -x {11.0 1.0 0 ------- null}
- -t 0.751066666666667 -s 0 -d 1 -p ack -e 40 -c 1 -i 3 -a 1 -x {11.0 1.0 0 ------- null}
h -t 0.751066666666667 -s 0 -d 1 -p ack -e 40 -c 1 -i 3 -a 1 -x {11.0 1.0 -1 ------- null}
r -t 0.773253333333334 -s 7 -d 12 -p cbr -e 512 -c 2 -i 2 -a 2 -x {4.0 12.0 1 ------- null}
r -t 0.80128 -s 0 -d 1 -p ack -e 40 -c 1 -i 3 -a 1 -x {11.0 1.0 0 ------- null}
+ -t 0.80128 -s 1 -d 0 -p tcp -e 552 -c 1 -i 4 -a 1 -x {1.0 11.0 1 ------- null}
- -t 0.80128 -s 1 -d 0 -p tcp -e 552 -c 1 -i 4 -a 1 -x {1.0 11.0 1 ------- null}
h -t 0.80128 -s 1 -d 0 -p tcp -e 552 -c 1 -i 4 -a 1 -x {1.0 11.0 -1 ------- null}
+ -t 0.80128 -s 1 -d 0 -p tcp -e 552 -c 1 -i 5 -a 1 -x {1.0 11.0 2 ------- null}
- -t 0.804224 -s 1 -d 0 -p tcp -e 552 -c 1 -i 5 -a 1 -x {1.0 11.0 2 ------- null}
h -t 0.804224 -s 1 -d 0 -p tcp -e 552 -c 1 -i 5 -a 1 -x {1.0 11.0 -1 ------- null}
r -t 0.854224 -s 1 -d 0 -p tcp -e 552 -c 1 -i 4 -a 1 -x {1.0 11.0 1 ------- null}
+ -t 0.854224 -s 0 -d 9 -p tcp -e 552 -c 1 -i 4 -a 1 -x {1.0 11.0 1 ------- null}
- -t 0.854224 -s 0 -d 9 -p tcp -e 552 -c 1 -i 4 -a 1 -x {1.0 11.0 1 ------- null}
h -t 0.854224 -s 0 -d 9 -p tcp -e 552 -c 1 -i 4 -a 1 -x {1.0 11.0 -1 ------- null}
r -t 0.857168 -s 1 -d 0 -p tcp -e 552 -c 1 -i 5 -a 1 -x {1.0 11.0 2 ------- null}
+ -t 0.857168 -s 0 -d 9 -p tcp -e 552 -c 1 -i 5 -a 1 -x {1.0 11.0 2 ------- null}
- -t 0.857168 -s 0 -d 9 -p tcp -e 552 -c 1 -i 5 -a 1 -x {1.0 11.0 2 ------- null}
h -t 0.857168 -s 0 -d 9 -p tcp -e 552 -c 1 -i 5 -a 1 -x {1.0 11.0 -1 ------- null}
r -t 0.907168 -s 0 -d 9 -p tcp -e 552 -c 1 -i 4 -a 1 -x {1.0 11.0 1 ------- null}
+ -t 0.907168 -s 9 -d 11 -p tcp -e 552 -c 1 -i 4 -a 1 -x {1.0 11.0 1 ------- null}
- -t 0.907168 -s 9 -d 11 -p tcp -e 552 -c 1 -i 4 -a 1 -x {1.0 11.0 1 ------- null}
h -t 0.907168 -s 9 -d 11 -p tcp -e 552 -c 1 -i 4 -a 1 -x {1.0 11.0 -1 ------- null}
r -t 0.910112 -s 0 -d 9 -p tcp -e 552 -c 1 -i 5 -a 1 -x {1.0 11.0 2 ------- null}
+ -t 0.910112 -s 9 -d 11 -p tcp -e 552 -c 1 -i 5 -a 1 -x {1.0 11.0 2 ------- null}
- -t 0.910112 -s 9 -d 11 -p tcp -e 552 -c 1 -i 5 -a 1 -x {1.0 11.0 2 ------- null}
h -t 0.910112 -s 9 -d 11 -p tcp -e 552 -c 1 -i 5 -a 1 -x {1.0 11.0 -1 ------- null}
+ -t 0.9192 -s 4 -d 3 -p cbr -e 512 -c 2 -i 6 -a 2 -x {4.0 12.0 2 ------- null}
- -t 0.9192 -s 4 -d 3 -p cbr -e 512 -c 2 -i 6 -a 2 -x {4.0 12.0 2 ------- null}
h -t 0.9192 -s 4 -d 3 -p cbr -e 512 -c 2 -i 6 -a 2 -x {4.0 12.0 -1 ------- null}
r -t 0.960112 -s 9 -d 11 -p tcp -e 552 -c 1 -i 4 -a 1 -x {1.0 11.0 1 ------- null}
r -t 0.963056 -s 9 -d 11 -p tcp -e 552 -c 1 -i 5 -a 1 -x {1.0 11.0 2 ------- null}
+ -t 0.963056 -s 11 -d 9 -p ack -e 40 -c 1 -i 7 -a 1 -x {11.0 1.0 2 ------- null}
- -t 0.963056 -s 11 -d 9 -p ack -e 40 -c 1 -i 7 -a 1 -x {11.0 1.0 2 ------- null}
h -t 0.963056 -s 11 -d 9 -p ack -e 40 -c 1 -i 7 -a 1 -x {11.0 1.0 -1 ------- null}
r -t 0.971930666666667 -s 4 -d 3 -p cbr -e 512 -c 2 -i 6 -a 2 -x {4.0 12.0 2 ------- null}
+ -t 0.971930666666667 -s 3 -d 0 -p cbr -e 512 -c 2 -i 6 -a 2 -x {4.0 12.0 2 ------- null}
- -t 0.971930666666667 -s 3 -d 0 -p cbr -e 512 -c 2 -i 6 -a 2 -x {4.0 12.0 2 ------- null}
h -t 0.971930666666667 -s 3 -d 0 -p cbr -e 512 -c 2 -i 6 -a 2 -x {4.0 12.0 -1 ------- null}
r -t 1.01326933333333 -s 11 -d 9 -p ack -e 40 -c 1 -i 7 -a 1 -x {11.0 1.0 2 ------- null}
+ -t 1.01326933333333 -s 9 -d 0 -p ack -e 40 -c 1 -i 7 -a 1 -x {11.0 1.0 2 ------- null}
- -t 1.01326933333333 -s 9 -d 0 -p ack -e 40 -c 1 -i 7 -a 1 -x {11.0 1.0 2 ------- null}
h -t 1.01326933333333 -s 9 -d 0 -p ack -e 40 -c 1 -i 7 -a 1 -x {11.0 1.0 -1 ------- null}
r -t 1.02466133333333 -s 3 -d 0 -p cbr -e 512 -c 2 -i 6 -a 2 -x {4.0 12.0 2 ------- null}
+ -t 1.02466133333333 -s 0 -d 1 -p cbr -e 512 -c 2 -i 6 -a 2 -x {4.0 12.0 2 ------- null}
- -t 1.02466133333333 -s 0 -d 1 -p cbr -e 512 -c 2 -i 6 -a 2 -x {4.0 12.0 2 ------- null}
h -t 1.02466133333333 -s 0 -d 1 -p cbr -e 512 -c 2 -i 6 -a 2 -x {4.0 12.0 -1 ------- null}
r -t 1.06348266666667 -s 9 -d 0 -p ack -e 40 -c 1 -i 7 -a 1 -x {11.0 1.0 2 ------- null}
+ -t 1.06348266666667 -s 0 -d 1 -p ack -e 40 -c 1 -i 7 -a 1 -x {11.0 1.0 2 ------- null}
- -t 1.06348266666667 -s 0 -d 1 -p ack -e 40 -c 1 -i 7 -a 1 -x {11.0 1.0 2 ------- null}
h -t 1.06348266666667 -s 0 -d 1 -p ack -e 40 -c 1 -i 7 -a 1 -x {11.0 1.0 -1 ------- null}
r -t 1.077392 -s 0 -d 1 -p cbr -e 512 -c 2 -i 6 -a 2 -x {4.0 12.0 2 ------- null}
+ -t 1.077392 -s 1 -d 7 -p cbr -e 512 -c 2 -i 6 -a 2 -x {4.0 12.0 2 ------- null}
- -t 1.077392 -s 1 -d 7 -p cbr -e 512 -c 2 -i 6 -a 2 -x {4.0 12.0 2 ------- null}
h -t 1.077392 -s 1 -d 7 -p cbr -e 512 -c 2 -i 6 -a 2 -x {4.0 12.0 -1 ------- null}
r -t 1.113696 -s 0 -d 1 -p ack -e 40 -c 1 -i 7 -a 1 -x {11.0 1.0 2 ------- null}
+ -t 1.113696 -s 1 -d 0 -p tcp -e 552 -c 1 -i 8 -a 1 -x {1.0 11.0 3 ------- null}
- -t 1.113696 -s 1 -d 0 -p tcp -e 552 -c 1 -i 8 -a 1 -x {1.0 11.0 3 ------- null}
h -t 1.113696 -s 1 -d 0 -p tcp -e 552 -c 1 -i 8 -a 1 -x {1.0 11.0 -1 ------- null}
+ -t 1.113696 -s 1 -d 0 -p tcp -e 552 -c 1 -i 9 -a 1 -x {1.0 11.0 4 ------- null}
+ -t 1.113696 -s 1 -d 0 -p tcp -e 552 -c 1 -i 10 -a 1 -x {1.0 11.0 5 ------- null}
- -t 1.11664 -s 1 -d 0 -p tcp -e 552 -c 1 -i 9 -a 1 -x {1.0 11.0 4 ------- null}
h -t 1.11664 -s 1 -d 0 -p tcp -e 552 -c 1 -i 9 -a 1 -x {1.0 11.0 -1 ------- null}
- -t 1.119584 -s 1 -d 0 -p tcp -e 552 -c 1 -i 10 -a 1 -x {1.0 11.0 5 ------- null}
h -t 1.119584 -s 1 -d 0 -p tcp -e 552 -c 1 -i 10 -a 1 -x {1.0 11.0 -1 ------- null}
r -t 1.13012266666667 -s 1 -d 7 -p cbr -e 512 -c 2 -i 6 -a 2 -x {4.0 12.0 2 ------- null}
+ -t 1.13012266666667 -s 7 -d 12 -p cbr -e 512 -c 2 -i 6 -a 2 -x {4.0 12.0 2 ------- null}
- -t 1.13012266666667 -s 7 -d 12 -p cbr -e 512 -c 2 -i 6 -a 2 -x {4.0 12.0 2 ------- null}
h -t 1.13012266666667 -s 7 -d 12 -p cbr -e 512 -c 2 -i 6 -a 2 -x {4.0 12.0 -1 ------- null}
r -t 1.16664 -s 1 -d 0 -p tcp -e 552 -c 1 -i 8 -a 1 -x {1.0 11.0 3 ------- null}
+ -t 1.16664 -s 0 -d 9 -p tcp -e 552 -c 1 -i 8 -a 1 -x {1.0 11.0 3 ------- null}
- -t 1.16664 -s 0 -d 9 -p tcp -e 552 -c 1 -i 8 -a 1 -x {1.0 11.0 3 ------- null}
h -t 1.16664 -s 0 -d 9 -p tcp -e 552 -c 1 -i 8 -a 1 -x {1.0 11.0 -1 ------- null}
r -t 1.169584 -s 1 -d 0 -p tcp -e 552 -c 1 -i 9 -a 1 -x {1.0 11.0 4 ------- null}
+ -t 1.169584 -s 0 -d 9 -p tcp -e 552 -c 1 -i 9 -a 1 -x {1.0 11.0 4 ------- null}
- -t 1.169584 -s 0 -d 9 -p tcp -e 552 -c 1 -i 9 -a 1 -x {1.0 11.0 4 ------- null}
h -t 1.169584 -s 0 -d 9 -p tcp -e 552 -c 1 -i 9 -a 1 -x {1.0 11.0 -1 ------- null}
r -t 1.172528 -s 1 -d 0 -p tcp -e 552 -c 1 -i 10 -a 1 -x {1.0 11.0 5 ------- null}
+ -t 1.172528 -s 0 -d 9 -p tcp -e 552 -c 1 -i 10 -a 1 -x {1.0 11.0 5 ------- null}
- -t 1.172528 -s 0 -d 9 -p tcp -e 552 -c 1 -i 10 -a 1 -x {1.0 11.0 5 ------- null}
h -t 1.172528 -s 0 -d 9 -p tcp -e 552 -c 1 -i 10 -a 1 -x {1.0 11.0 -1 ------- null}
r -t 1.18285333333333 -s 7 -d 12 -p cbr -e 512 -c 2 -i 6 -a 2 -x {4.0 12.0 2 ------- null}
r -t 1.219584 -s 0 -d 9 -p tcp -e 552 -c 1 -i 8 -a 1 -x {1.0 11.0 3 ------- null}
+ -t 1.219584 -s 9 -d 11 -p tcp -e 552 -c 1 -i 8 -a 1 -x {1.0 11.0 3 ------- null}
- -t 1.219584 -s 9 -d 11 -p tcp -e 552 -c 1 -i 8 -a 1 -x {1.0 11.0 3 ------- null}
h -t 1.219584 -s 9 -d 11 -p tcp -e 552 -c 1 -i 8 -a 1 -x {1.0 11.0 -1 ------- null}
r -t 1.222528 -s 0 -d 9 -p tcp -e 552 -c 1 -i 9 -a 1 -x {1.0 11.0 4 ------- null}
+ -t 1.222528 -s 9 -d 11 -p tcp -e 552 -c 1 -i 9 -a 1 -x {1.0 11.0 4 ------- null}
- -t 1.222528 -s 9 -d 11 -p tcp -e 552 -c 1 -i 9 -a 1 -x {1.0 11.0 4 ------- null}
h -t 1.222528 -s 9 -d 11 -p tcp -e 552 -c 1 -i 9 -a 1 -x {1.0 11.0 -1 ------- null}
r -t 1.225472 -s 0 -d 9 -p tcp -e 552 -c 1 -i 10 -a 1 -x {1.0 11.0 5 ------- null}
+ -t 1.225472 -s 9 -d 11 -p tcp -e 552 -c 1 -i 10 -a 1 -x {1.0 11.0 5 ------- null}
- -t 1.225472 -s 9 -d 11 -p tcp -e 552 -c 1 -i 10 -a 1 -x {1.0 11.0 5 ------- null}
h -t 1.225472 -s 9 -d 11 -p tcp -e 552 -c 1 -i 10 -a 1 -x {1.0 11.0 -1 ------- null}
r -t 1.272528 -s 9 -d 11 -p tcp -e 552 -c 1 -i 8 -a 1 -x {1.0 11.0 3 ------- null}
r -t 1.275472 -s 9 -d 11 -p tcp -e 552 -c 1 -i 9 -a 1 -x {1.0 11.0 4 ------- null}
+ -t 1.275472 -s 11 -d 9 -p ack -e 40 -c 1 -i 11 -a 1 -x {11.0 1.0 4 ------- null}
- -t 1.275472 -s 11 -d 9 -p ack -e 40 -c 1 -i 11 -a 1 -x {11.0 1.0 4 ------- null}
h -t 1.275472 -s 11 -d 9 -p ack -e 40 -c 1 -i 11 -a 1 -x {11.0 1.0 -1 ------- null}
r -t 1.278416 -s 9 -d 11 -p tcp -e 552 -c 1 -i 10 -a 1 -x {1.0 11.0 5 ------- null}
r -t 1.32568533333333 -s 11 -d 9 -p ack -e 40 -c 1 -i 11 -a 1 -x {11.0 1.0 4 ------- null}
+ -t 1.32568533333333 -s 9 -d 0 -p ack -e 40 -c 1 -i 11 -a 1 -x {11.0 1.0 4 ------- null}
- -t 1.32568533333333 -s 9 -d 0 -p ack -e 40 -c 1 -i 11 -a 1 -x {11.0 1.0 4 ------- null}
h -t 1.32568533333333 -s 9 -d 0 -p ack -e 40 -c 1 -i 11 -a 1 -x {11.0 1.0 -1 ------- null}
+ -t 1.3288 -s 4 -d 3 -p cbr -e 512 -c 2 -i 12 -a 2 -x {4.0 12.0 3 ------- null}
- -t 1.3288 -s 4 -d 3 -p cbr -e 512 -c 2 -i 12 -a 2 -x {4.0 12.0 3 ------- null}
h -t 1.3288 -s 4 -d 3 -p cbr -e 512 -c 2 -i 12 -a 2 -x {4.0 12.0 -1 ------- null}
r -t 1.37589866666667 -s 9 -d 0 -p ack -e 40 -c 1 -i 11 -a 1 -x {11.0 1.0 4 ------- null}
+ -t 1.37589866666667 -s 0 -d 1 -p ack -e 40 -c 1 -i 11 -a 1 -x {11.0 1.0 4 ------- null}
- -t 1.37589866666667 -s 0 -d 1 -p ack -e 40 -c 1 -i 11 -a 1 -x {11.0 1.0 4 ------- null}
h -t 1.37589866666667 -s 0 -d 1 -p ack -e 40 -c 1 -i 11 -a 1 -x {11.0 1.0 -1 ------- null}
+ -t 1.378416 -s 11 -d 9 -p ack -e 40 -c 1 -i 13 -a 1 -x {11.0 1.0 5 ------- null}
- -t 1.378416 -s 11 -d 9 -p ack -e 40 -c 1 -i 13 -a 1 -x {11.0 1.0 5 ------- null}
h -t 1.378416 -s 11 -d 9 -p ack -e 40 -c 1 -i 13 -a 1 -x {11.0 1.0 -1 ------- null}
r -t 1.38153066666667 -s 4 -d 3 -p cbr -e 512 -c 2 -i 12 -a 2 -x {4.0 12.0 3 ------- null}
+ -t 1.38153066666667 -s 3 -d 0 -p cbr -e 512 -c 2 -i 12 -a 2 -x {4.0 12.0 3 ------- null}
- -t 1.38153066666667 -s 3 -d 0 -p cbr -e 512 -c 2 -i 12 -a 2 -x {4.0 12.0 3 ------- null}
h -t 1.38153066666667 -s 3 -d 0 -p cbr -e 512 -c 2 -i 12 -a 2 -x {4.0 12.0 -1 ------- null}
r -t 1.426112 -s 0 -d 1 -p ack -e 40 -c 1 -i 11 -a 1 -x {11.0 1.0 4 ------- null}
+ -t 1.426112 -s 1 -d 0 -p tcp -e 552 -c 1 -i 14 -a 1 -x {1.0 11.0 6 ------- null}
- -t 1.426112 -s 1 -d 0 -p tcp -e 552 -c 1 -i 14 -a 1 -x {1.0 11.0 6 ------- null}
h -t 1.426112 -s 1 -d 0 -p tcp -e 552 -c 1 -i 14 -a 1 -x {1.0 11.0 -1 ------- null}
+ -t 1.426112 -s 1 -d 0 -p tcp -e 552 -c 1 -i 15 -a 1 -x {1.0 11.0 7 ------- null}
+ -t 1.426112 -s 1 -d 0 -p tcp -e 552 -c 1 -i 16 -a 1 -x {1.0 11.0 8 ------- null}
r -t 1.42862933333333 -s 11 -d 9 -p ack -e 40 -c 1 -i 13 -a 1 -x {11.0 1.0 5 ------- null}
+ -t 1.42862933333333 -s 9 -d 0 -p ack -e 40 -c 1 -i 13 -a 1 -x {11.0 1.0 5 ------- null}
- -t 1.42862933333333 -s 9 -d 0 -p ack -e 40 -c 1 -i 13 -a 1 -x {11.0 1.0 5 ------- null}
h -t 1.42862933333333 -s 9 -d 0 -p ack -e 40 -c 1 -i 13 -a 1 -x {11.0 1.0 -1 ------- null}
- -t 1.429056 -s 1 -d 0 -p tcp -e 552 -c 1 -i 15 -a 1 -x {1.0 11.0 7 ------- null}
h -t 1.429056 -s 1 -d 0 -p tcp -e 552 -c 1 -i 15 -a 1 -x {1.0 11.0 -1 ------- null}
- -t 1.432 -s 1 -d 0 -p tcp -e 552 -c 1 -i 16 -a 1 -x {1.0 11.0 8 ------- null}
h -t 1.432 -s 1 -d 0 -p tcp -e 552 -c 1 -i 16 -a 1 -x {1.0 11.0 -1 ------- null}
r -t 1.43426133333333 -s 3 -d 0 -p cbr -e 512 -c 2 -i 12 -a 2 -x {4.0 12.0 3 ------- null}
+ -t 1.43426133333333 -s 0 -d 1 -p cbr -e 512 -c 2 -i 12 -a 2 -x {4.0 12.0 3 ------- null}
- -t 1.43426133333333 -s 0 -d 1 -p cbr -e 512 -c 2 -i 12 -a 2 -x {4.0 12.0 3 ------- null}
h -t 1.43426133333333 -s 0 -d 1 -p cbr -e 512 -c 2 -i 12 -a 2 -x {4.0 12.0 -1 ------- null}
r -t 1.47884266666667 -s 9 -d 0 -p ack -e 40 -c 1 -i 13 -a 1 -x {11.0 1.0 5 ------- null}
+ -t 1.47884266666667 -s 0 -d 1 -p ack -e 40 -c 1 -i 13 -a 1 -x {11.0 1.0 5 ------- null}
- -t 1.47884266666667 -s 0 -d 1 -p ack -e 40 -c 1 -i 13 -a 1 -x {11.0 1.0 5 ------- null}
h -t 1.47884266666667 -s 0 -d 1 -p ack -e 40 -c 1 -i 13 -a 1 -x {11.0 1.0 -1 ------- null}
r -t 1.479056 -s 1 -d 0 -p tcp -e 552 -c 1 -i 14 -a 1 -x {1.0 11.0 6 ------- null}
+ -t 1.479056 -s 0 -d 9 -p tcp -e 552 -c 1 -i 14 -a 1 -x {1.0 11.0 6 ------- null}
- -t 1.479056 -s 0 -d 9 -p tcp -e 552 -c 1 -i 14 -a 1 -x {1.0 11.0 6 ------- null}
h -t 1.479056 -s 0 -d 9 -p tcp -e 552 -c 1 -i 14 -a 1 -x {1.0 11.0 -1 ------- null}
r -t 1.482 -s 1 -d 0 -p tcp -e 552 -c 1 -i 15 -a 1 -x {1.0 11.0 7 ------- null}
+ -t 1.482 -s 0 -d 9 -p tcp -e 552 -c 1 -i 15 -a 1 -x {1.0 11.0 7 ------- null}
- -t 1.482 -s 0 -d 9 -p tcp -e 552 -c 1 -i 15 -a 1 -x {1.0 11.0 7 ------- null}
h -t 1.482 -s 0 -d 9 -p tcp -e 552 -c 1 -i 15 -a 1 -x {1.0 11.0 -1 ------- null}
r -t 1.484944 -s 1 -d 0 -p tcp -e 552 -c 1 -i 16 -a 1 -x {1.0 11.0 8 ------- null}
+ -t 1.484944 -s 0 -d 9 -p tcp -e 552 -c 1 -i 16 -a 1 -x {1.0 11.0 8 ------- null}
- -t 1.484944 -s 0 -d 9 -p tcp -e 552 -c 1 -i 16 -a 1 -x {1.0 11.0 8 ------- null}
h -t 1.484944 -s 0 -d 9 -p tcp -e 552 -c 1 -i 16 -a 1 -x {1.0 11.0 -1 ------- null}
r -t 1.486992 -s 0 -d 1 -p cbr -e 512 -c 2 -i 12 -a 2 -x {4.0 12.0 3 ------- null}
+ -t 1.486992 -s 1 -d 7 -p cbr -e 512 -c 2 -i 12 -a 2 -x {4.0 12.0 3 ------- null}
- -t 1.486992 -s 1 -d 7 -p cbr -e 512 -c 2 -i 12 -a 2 -x {4.0 12.0 3 ------- null}
h -t 1.486992 -s 1 -d 7 -p cbr -e 512 -c 2 -i 12 -a 2 -x {4.0 12.0 -1 ------- null}
r -t 1.529056 -s 0 -d 1 -p ack -e 40 -c 1 -i 13 -a 1 -x {11.0 1.0 5 ------- null}
+ -t 1.529056 -s 1 -d 0 -p tcp -e 552 -c 1 -i 17 -a 1 -x {1.0 11.0 9 ------- null}
- -t 1.529056 -s 1 -d 0 -p tcp -e 552 -c 1 -i 17 -a 1 -x {1.0 11.0 9 ------- null}
h -t 1.529056 -s 1 -d 0 -p tcp -e 552 -c 1 -i 17 -a 1 -x {1.0 11.0 -1 ------- null}
+ -t 1.529056 -s 1 -d 0 -p tcp -e 552 -c 1 -i 18 -a 1 -x {1.0 11.0 10 ------- null}
r -t 1.532 -s 0 -d 9 -p tcp -e 552 -c 1 -i 14 -a 1 -x {1.0 11.0 6 ------- null}
+ -t 1.532 -s 9 -d 11 -p tcp -e 552 -c 1 -i 14 -a 1 -x {1.0 11.0 6 ------- null}
- -t 1.532 -s 9 -d 11 -p tcp -e 552 -c 1 -i 14 -a 1 -x {1.0 11.0 6 ------- null}
h -t 1.532 -s 9 -d 11 -p tcp -e 552 -c 1 -i 14 -a 1 -x {1.0 11.0 -1 ------- null}
- -t 1.532 -s 1 -d 0 -p tcp -e 552 -c 1 -i 18 -a 1 -x {1.0 11.0 10 ------- null}
h -t 1.532 -s 1 -d 0 -p tcp -e 552 -c 1 -i 18 -a 1 -x {1.0 11.0 -1 ------- null}
r -t 1.534944 -s 0 -d 9 -p tcp -e 552 -c 1 -i 15 -a 1 -x {1.0 11.0 7 ------- null}
+ -t 1.534944 -s 9 -d 11 -p tcp -e 552 -c 1 -i 15 -a 1 -x {1.0 11.0 7 ------- null}
- -t 1.534944 -s 9 -d 11 -p tcp -e 552 -c 1 -i 15 -a 1 -x {1.0 11.0 7 ------- null}
h -t 1.534944 -s 9 -d 11 -p tcp -e 552 -c 1 -i 15 -a 1 -x {1.0 11.0 -1 ------- null}
r -t 1.537888 -s 0 -d 9 -p tcp -e 552 -c 1 -i 16 -a 1 -x {1.0 11.0 8 ------- null}
+ -t 1.537888 -s 9 -d 11 -p tcp -e 552 -c 1 -i 16 -a 1 -x {1.0 11.0 8 ------- null}
- -t 1.537888 -s 9 -d 11 -p tcp -e 552 -c 1 -i 16 -a 1 -x {1.0 11.0 8 ------- null}
h -t 1.537888 -s 9 -d 11 -p tcp -e 552 -c 1 -i 16 -a 1 -x {1.0 11.0 -1 ------- null}
r -t 1.53972266666667 -s 1 -d 7 -p cbr -e 512 -c 2 -i 12 -a 2 -x {4.0 12.0 3 ------- null}
+ -t 1.53972266666667 -s 7 -d 12 -p cbr -e 512 -c 2 -i 12 -a 2 -x {4.0 12.0 3 ------- null}
- -t 1.53972266666667 -s 7 -d 12 -p cbr -e 512 -c 2 -i 12 -a 2 -x {4.0 12.0 3 ------- null}
h -t 1.53972266666667 -s 7 -d 12 -p cbr -e 512 -c 2 -i 12 -a 2 -x {4.0 12.0 -1 ------- null}
r -t 1.582 -s 1 -d 0 -p tcp -e 552 -c 1 -i 17 -a 1 -x {1.0 11.0 9 ------- null}
+ -t 1.582 -s 0 -d 9 -p tcp -e 552 -c 1 -i 17 -a 1 -x {1.0 11.0 9 ------- null}
- -t 1.582 -s 0 -d 9 -p tcp -e 552 -c 1 -i 17 -a 1 -x {1.0 11.0 9 ------- null}
h -t 1.582 -s 0 -d 9 -p tcp -e 552 -c 1 -i 17 -a 1 -x {1.0 11.0 -1 ------- null}
r -t 1.584944 -s 9 -d 11 -p tcp -e 552 -c 1 -i 14 -a 1 -x {1.0 11.0 6 ------- null}
r -t 1.584944 -s 1 -d 0 -p tcp -e 552 -c 1 -i 18 -a 1 -x {1.0 11.0 10 ------- null}
+ -t 1.584944 -s 0 -d 9 -p tcp -e 552 -c 1 -i 18 -a 1 -x {1.0 11.0 10 ------- null}
- -t 1.584944 -s 0 -d 9 -p tcp -e 552 -c 1 -i 18 -a 1 -x {1.0 11.0 10 ------- null}
h -t 1.584944 -s 0 -d 9 -p tcp -e 552 -c 1 -i 18 -a 1 -x {1.0 11.0 -1 ------- null}
r -t 1.587888 -s 9 -d 11 -p tcp -e 552 -c 1 -i 15 -a 1 -x {1.0 11.0 7 ------- null}
+ -t 1.587888 -s 11 -d 9 -p ack -e 40 -c 1 -i 19 -a 1 -x {11.0 1.0 7 ------- null}
- -t 1.587888 -s 11 -d 9 -p ack -e 40 -c 1 -i 19 -a 1 -x {11.0 1.0 7 ------- null}
h -t 1.587888 -s 11 -d 9 -p ack -e 40 -c 1 -i 19 -a 1 -x {11.0 1.0 -1 ------- null}
r -t 1.590832 -s 9 -d 11 -p tcp -e 552 -c 1 -i 16 -a 1 -x {1.0 11.0 8 ------- null}
r -t 1.59245333333333 -s 7 -d 12 -p cbr -e 512 -c 2 -i 12 -a 2 -x {4.0 12.0 3 ------- null}
r -t 1.634944 -s 0 -d 9 -p tcp -e 552 -c 1 -i 17 -a 1 -x {1.0 11.0 9 ------- null}
+ -t 1.634944 -s 9 -d 11 -p tcp -e 552 -c 1 -i 17 -a 1 -x {1.0 11.0 9 ------- null}
- -t 1.634944 -s 9 -d 11 -p tcp -e 552 -c 1 -i 17 -a 1 -x {1.0 11.0 9 ------- null}
h -t 1.634944 -s 9 -d 11 -p tcp -e 552 -c 1 -i 17 -a 1 -x {1.0 11.0 -1 ------- null}
r -t 1.637888 -s 0 -d 9 -p tcp -e 552 -c 1 -i 18 -a 1 -x {1.0 11.0 10 ------- null}
+ -t 1.637888 -s 9 -d 11 -p tcp -e 552 -c 1 -i 18 -a 1 -x {1.0 11.0 10 ------- null}
- -t 1.637888 -s 9 -d 11 -p tcp -e 552 -c 1 -i 18 -a 1 -x {1.0 11.0 10 ------- null}
h -t 1.637888 -s 9 -d 11 -p tcp -e 552 -c 1 -i 18 -a 1 -x {1.0 11.0 -1 ------- null}
r -t 1.63810133333333 -s 11 -d 9 -p ack -e 40 -c 1 -i 19 -a 1 -x {11.0 1.0 7 ------- null}
+ -t 1.63810133333333 -s 9 -d 0 -p ack -e 40 -c 1 -i 19 -a 1 -x {11.0 1.0 7 ------- null}
- -t 1.63810133333333 -s 9 -d 0 -p ack -e 40 -c 1 -i 19 -a 1 -x {11.0 1.0 7 ------- null}
h -t 1.63810133333333 -s 9 -d 0 -p ack -e 40 -c 1 -i 19 -a 1 -x {11.0 1.0 -1 ------- null}
r -t 1.687888 -s 9 -d 11 -p tcp -e 552 -c 1 -i 17 -a 1 -x {1.0 11.0 9 ------- null}
+ -t 1.687888 -s 11 -d 9 -p ack -e 40 -c 1 -i 20 -a 1 -x {11.0 1.0 9 ------- null}
- -t 1.687888 -s 11 -d 9 -p ack -e 40 -c 1 -i 20 -a 1 -x {11.0 1.0 9 ------- null}
h -t 1.687888 -s 11 -d 9 -p ack -e 40 -c 1 -i 20 -a 1 -x {11.0 1.0 -1 ------- null}
r -t 1.68831466666667 -s 9 -d 0 -p ack -e 40 -c 1 -i 19 -a 1 -x {11.0 1.0 7 ------- null}
+ -t 1.68831466666667 -s 0 -d 1 -p ack -e 40 -c 1 -i 19 -a 1 -x {11.0 1.0 7 ------- null}
- -t 1.68831466666667 -s 0 -d 1 -p ack -e 40 -c 1 -i 19 -a 1 -x {11.0 1.0 7 ------- null}
h -t 1.68831466666667 -s 0 -d 1 -p ack -e 40 -c 1 -i 19 -a 1 -x {11.0 1.0 -1 ------- null}
r -t 1.690832 -s 9 -d 11 -p tcp -e 552 -c 1 -i 18 -a 1 -x {1.0 11.0 10 ------- null}
r -t 1.73810133333333 -s 11 -d 9 -p ack -e 40 -c 1 -i 20 -a 1 -x {11.0 1.0 9 ------- null}
+ -t 1.73810133333333 -s 9 -d 0 -p ack -e 40 -c 1 -i 20 -a 1 -x {11.0 1.0 9 ------- null}
- -t 1.73810133333333 -s 9 -d 0 -p ack -e 40 -c 1 -i 20 -a 1 -x {11.0 1.0 9 ------- null}
h -t 1.73810133333333 -s 9 -d 0 -p ack -e 40 -c 1 -i 20 -a 1 -x {11.0 1.0 -1 ------- null}
+ -t 1.7384 -s 4 -d 3 -p cbr -e 512 -c 2 -i 21 -a 2 -x {4.0 12.0 4 ------- null}
- -t 1.7384 -s 4 -d 3 -p cbr -e 512 -c 2 -i 21 -a 2 -x {4.0 12.0 4 ------- null}
h -t 1.7384 -s 4 -d 3 -p cbr -e 512 -c 2 -i 21 -a 2 -x {4.0 12.0 -1 ------- null}
r -t 1.738528 -s 0 -d 1 -p ack -e 40 -c 1 -i 19 -a 1 -x {11.0 1.0 7 ------- null}
+ -t 1.738528 -s 1 -d 0 -p tcp -e 552 -c 1 -i 22 -a 1 -x {1.0 11.0 11 ------- null}
- -t 1.738528 -s 1 -d 0 -p tcp -e 552 -c 1 -i 22 -a 1 -x {1.0 11.0 11 ------- null}
h -t 1.738528 -s 1 -d 0 -p tcp -e 552 -c 1 -i 22 -a 1 -x {1.0 11.0 -1 ------- null}
+ -t 1.738528 -s 1 -d 0 -p tcp -e 552 -c 1 -i 23 -a 1 -x {1.0 11.0 12 ------- null}
+ -t 1.738528 -s 1 -d 0 -p tcp -e 552 -c 1 -i 24 -a 1 -x {1.0 11.0 13 ------- null}
- -t 1.741472 -s 1 -d 0 -p tcp -e 552 -c 1 -i 23 -a 1 -x {1.0 11.0 12 ------- null}
h -t 1.741472 -s 1 -d 0 -p tcp -e 552 -c 1 -i 23 -a 1 -x {1.0 11.0 -1 ------- null}
- -t 1.744416 -s 1 -d 0 -p tcp -e 552 -c 1 -i 24 -a 1 -x {1.0 11.0 13 ------- null}
h -t 1.744416 -s 1 -d 0 -p tcp -e 552 -c 1 -i 24 -a 1 -x {1.0 11.0 -1 ------- null}
r -t 1.78831466666667 -s 9 -d 0 -p ack -e 40 -c 1 -i 20 -a 1 -x {11.0 1.0 9 ------- null}
+ -t 1.78831466666667 -s 0 -d 1 -p ack -e 40 -c 1 -i 20 -a 1 -x {11.0 1.0 9 ------- null}
- -t 1.78831466666667 -s 0 -d 1 -p ack -e 40 -c 1 -i 20 -a 1 -x {11.0 1.0 9 ------- null}
h -t 1.78831466666667 -s 0 -d 1 -p ack -e 40 -c 1 -i 20 -a 1 -x {11.0 1.0 -1 ------- null}
+ -t 1.790832 -s 11 -d 9 -p ack -e 40 -c 1 -i 25 -a 1 -x {11.0 1.0 10 ------- null}
- -t 1.790832 -s 11 -d 9 -p ack -e 40 -c 1 -i 25 -a 1 -x {11.0 1.0 10 ------- null}
h -t 1.790832 -s 11 -d 9 -p ack -e 40 -c 1 -i 25 -a 1 -x {11.0 1.0 -1 ------- null}
r -t 1.79113066666667 -s 4 -d 3 -p cbr -e 512 -c 2 -i 21 -a 2 -x {4.0 12.0 4 ------- null}
+ -t 1.79113066666667 -s 3 -d 0 -p cbr -e 512 -c 2 -i 21 -a 2 -x {4.0 12.0 4 ------- null}
- -t 1.79113066666667 -s 3 -d 0 -p cbr -e 512 -c 2 -i 21 -a 2 -x {4.0 12.0 4 ------- null}
h -t 1.79113066666667 -s 3 -d 0 -p cbr -e 512 -c 2 -i 21 -a 2 -x {4.0 12.0 -1 ------- null}
r -t 1.791472 -s 1 -d 0 -p tcp -e 552 -c 1 -i 22 -a 1 -x {1.0 11.0 11 ------- null}
+ -t 1.791472 -s 0 -d 9 -p tcp -e 552 -c 1 -i 22 -a 1 -x {1.0 11.0 11 ------- null}
- -t 1.791472 -s 0 -d 9 -p tcp -e 552 -c 1 -i 22 -a 1 -x {1.0 11.0 11 ------- null}
h -t 1.791472 -s 0 -d 9 -p tcp -e 552 -c 1 -i 22 -a 1 -x {1.0 11.0 -1 ------- null}
r -t 1.794416 -s 1 -d 0 -p tcp -e 552 -c 1 -i 23 -a 1 -x {1.0 11.0 12 ------- null}
+ -t 1.794416 -s 0 -d 9 -p tcp -e 552 -c 1 -i 23 -a 1 -x {1.0 11.0 12 ------- null}
- -t 1.794416 -s 0 -d 9 -p tcp -e 552 -c 1 -i 23 -a 1 -x {1.0 11.0 12 ------- null}
h -t 1.794416 -s 0 -d 9 -p tcp -e 552 -c 1 -i 23 -a 1 -x {1.0 11.0 -1 ------- null}
r -t 1.79736 -s 1 -d 0 -p tcp -e 552 -c 1 -i 24 -a 1 -x {1.0 11.0 13 ------- null}
+ -t 1.79736 -s 0 -d 9 -p tcp -e 552 -c 1 -i 24 -a 1 -x {1.0 11.0 13 ------- null}
- -t 1.79736 -s 0 -d 9 -p tcp -e 552 -c 1 -i 24 -a 1 -x {1.0 11.0 13 ------- null}
h -t 1.79736 -s 0 -d 9 -p tcp -e 552 -c 1 -i 24 -a 1 -x {1.0 11.0 -1 ------- null}
r -t 1.838528 -s 0 -d 1 -p ack -e 40 -c 1 -i 20 -a 1 -x {11.0 1.0 9 ------- null}
+ -t 1.838528 -s 1 -d 0 -p tcp -e 552 -c 1 -i 26 -a 1 -x {1.0 11.0 14 ------- null}
- -t 1.838528 -s 1 -d 0 -p tcp -e 552 -c 1 -i 26 -a 1 -x {1.0 11.0 14 ------- null}
h -t 1.838528 -s 1 -d 0 -p tcp -e 552 -c 1 -i 26 -a 1 -x {1.0 11.0 -1 ------- null}
+ -t 1.838528 -s 1 -d 0 -p tcp -e 552 -c 1 -i 27 -a 1 -x {1.0 11.0 15 ------- null}
+ -t 1.838528 -s 1 -d 0 -p tcp -e 552 -c 1 -i 28 -a 1 -x {1.0 11.0 16 ------- null}
r -t 1.84104533333333 -s 11 -d 9 -p ack -e 40 -c 1 -i 25 -a 1 -x {11.0 1.0 10 ------- null}